REMARK SMILES COC1C[C@H](C[C@H]2CNC(N)NC2N)CC(OC)[C@H]1OC
REMARK SMILES IDX 6 1 7 2 8 3 9 4 10 5 13 6 12 7 11 10 14 13 5 16 15 17 4 18
REMARK SMILES IDX 16 19 3 20 19 21 17 22 18 23 2 24 1 25 20 26 21 27
REMARK H PARENT 9 8 12 9 11 11 11 12 14 14 14 15
ROOT
ATOM      1  C9  TOP A1159      -3.775 -31.090   4.707  1.00  0.00    +0.011 C 
ENDROOT
BRANCH   1   2
ATOM      2  C8  TOP A1159      -4.789 -29.935   4.662  1.00  0.00    +0.035 C 
ATOM      3  C1  TOP A1159      -5.878 -29.790   5.470  1.00  0.00    +0.090 C 
ATOM      4  N2  TOP A1159      -6.698 -28.714   5.351  1.00  0.00    -0.289 NA
ATOM      5  C3  TOP A1159      -6.450 -27.766   4.444  1.00  0.00    +0.191 C 
ATOM      6  C6  TOP A1159      -4.530 -28.849   3.703  1.00  0.00    +0.125 C 
ATOM      7  N5  TOP A1159      -5.392 -27.831   3.617  1.00  0.00    -0.274 NA
ATOM      8  H   UNL     1      -7.638 -29.081   5.143  1.00  0.00    +0.125 HD
ATOM      9  H   UNL     1      -5.767 -27.841   2.658  1.00  0.00    +0.127 HD
BRANCH   5  10
ATOM     10  N4  TOP A1159      -7.266 -26.725   4.343  1.00  0.00    -0.304 NA
ATOM     11  H   UNL     1      -7.523 -26.397   5.285  1.00  0.00    +0.121 HD
ATOM     12  H   UNL     1      -6.793 -25.966   3.833  1.00  0.00    +0.121 HD
ENDBRANCH   5  10
BRANCH   6  13
ATOM     13  N7  TOP A1159      -3.437 -28.909   2.941  1.00  0.00    -0.316 NA
ATOM     14  H   UNL     1      -2.602 -28.955   3.542  1.00  0.00    +0.120 HD
ATOM     15  H   UNL     1      -3.479 -29.749   2.346  1.00  0.00    +0.120 HD
ENDBRANCH   6  13
ENDBRANCH   1   2
BRANCH   1  16
ATOM     16  C10 TOP A1159      -4.192 -32.245   5.608  1.00  0.00    -0.005 C 
ATOM     17  C11 TOP A1159      -3.420 -32.565   6.722  1.00  0.00    +0.038 C 
ATOM     18  C21 TOP A1159      -5.304 -33.020   5.274  1.00  0.00    +0.038 C 
ATOM     19  C12 TOP A1159      -3.826 -33.644   7.540  1.00  0.00    +0.149 C 
ATOM     20  C18 TOP A1159      -5.689 -34.102   6.078  1.00  0.00    +0.149 C 
ATOM     21  C15 TOP A1159      -4.936 -34.412   7.203  1.00  0.00    +0.175 C 
BRANCH  19  22
ATOM     22  O13 TOP A1159      -3.126 -33.979   8.682  1.00  0.00    -0.379 OA
ATOM     23  C14 TOP A1159      -1.878 -33.322   8.977  1.00  0.00    +0.195 C 
ENDBRANCH  19  22
BRANCH  20  24
ATOM     24  O19 TOP A1159      -6.815 -34.841   5.751  1.00  0.00    -0.379 OA
ATOM     25  C20 TOP A1159      -7.209 -34.851   4.366  1.00  0.00    +0.195 C 
ENDBRANCH  20  24
BRANCH  21  26
ATOM     26  O16 TOP A1159      -5.316 -35.449   8.035  1.00  0.00    -0.376 OA
ATOM     27  C17 TOP A1159      -6.365 -35.203   8.921  1.00  0.00    +0.195 C 
ENDBRANCH  21  26
ENDBRANCH   1  16
TORSDOF 7
