REMARK SMILES O=c1cc(-c2ccccc2)oc2cc(O)c(O)c(O)c12
REMARK SMILES IDX 11 1 1 2 20 3 12 4 4 5 18 6 2 7 3 8 13 9 16 10 14 11 5 12
REMARK SMILES IDX 6 13 10 14 7 15 9 16 8 17 19 18 15 20 17 22
REMARK H PARENT 19 19 15 21 17 23
ROOT
ATOM      1  O   UNL     1       0.489   0.812  -0.050  1.00  0.00    -0.456 OA
ATOM      2  O   UNL     1      -1.016  -2.966   0.188  1.00  0.00    -0.289 OA
ATOM      3  C   UNL     1      -1.449  -0.648   0.039  1.00  0.00    +0.111 A 
ATOM      4  C   UNL     1      -0.868   0.616  -0.041  1.00  0.00    +0.146 A 
ATOM      5  C   UNL     1       1.317  -0.297   0.033  1.00  0.00    +0.138 A 
ATOM      6  C   UNL     1      -2.839  -0.788   0.043  1.00  0.00    +0.176 A 
ATOM      7  C   UNL     1      -0.574  -1.828   0.118  1.00  0.00    +0.197 A 
ATOM      8  C   UNL     1       0.879  -1.564   0.108  1.00  0.00    +0.100 A 
ATOM      9  C   UNL     1      -1.676   1.751  -0.119  1.00  0.00    +0.098 A 
ATOM     10  C   UNL     1      -3.644   0.349  -0.035  1.00  0.00    +0.201 A 
ATOM     11  C   UNL     1      -3.064   1.615  -0.115  1.00  0.00    +0.165 A 
ENDROOT
BRANCH   5  12
ATOM     12  C   UNL     1       2.758   0.027   0.010  1.00  0.00    +0.017 A 
ATOM     13  C   UNL     1       3.671  -0.873  -0.545  1.00  0.00    +0.012 A 
ATOM     14  C   UNL     1       3.215   1.234   0.544  1.00  0.00    +0.012 A 
ATOM     15  C   UNL     1       5.032  -0.568  -0.567  1.00  0.00    +0.001 A 
ATOM     16  C   UNL     1       4.575   1.540   0.522  1.00  0.00    +0.001 A 
ATOM     17  C   UNL     1       5.484   0.639  -0.033  1.00  0.00    +0.000 A 
ENDBRANCH   5  12
BRANCH   6  18
ATOM     18  O   UNL     1      -3.442  -2.008   0.121  1.00  0.00    -0.504 OA
ATOM     19  H   UNL     1      -2.782  -2.716   0.174  1.00  0.00    +0.293 HD
ENDBRANCH   6  18
BRANCH  11  20
ATOM     20  O   UNL     1      -3.844   2.731  -0.190  1.00  0.00    -0.504 OA
ATOM     21  H   UNL     1      -4.777   2.453  -0.175  1.00  0.00    +0.293 HD
ENDBRANCH  11  20
BRANCH  10  22
ATOM     22  O   UNL     1      -5.003   0.226  -0.032  1.00  0.00    -0.502 OA
ATOM     23  H   UNL     1      -5.226  -0.720   0.030  1.00  0.00    +0.293 HD
ENDBRANCH  10  22
TORSDOF 4
