REMARK SMILES COc1ccc2cc3[n+](cc2c1OC)CCc1cc2c(cc1-3)OCO2
REMARK SMILES IDX 25 1 23 2 9 3 15 4 16 5 8 6 17 7 22 8 10 9 7 10 11 11 6 12
REMARK SMILES IDX 18 13 21 14 19 15 20 16 12 17 5 18 3 19 24 20 4 21 13 22
REMARK SMILES IDX 14 23 2 24 1 25
REMARK H PARENT
ROOT
ATOM      1  O   UNL     1      -6.155   0.036  -0.105  1.00  0.00    -0.454 OA
ATOM      2  O   UNL     1      -5.032  -2.062   0.264  1.00  0.00    -0.454 OA
ATOM      3  N   UNL     1       0.096   1.217   0.273  1.00  0.00    -0.197 N 
ATOM      4  C   UNL     1      -0.673   2.450   0.580  1.00  0.00    +0.362 C 
ATOM      5  C   UNL     1      -1.885   2.537  -0.328  1.00  0.00    +0.109 C 
ATOM      6  C   UNL     1      -0.536   0.032   0.032  1.00  0.00    +0.213 A 
ATOM      7  C   UNL     1      -2.699   1.284  -0.168  1.00  0.00    -0.024 A 
ATOM      8  C   UNL     1      -2.012   0.053   0.023  1.00  0.00    +0.054 A 
ATOM      9  C   UNL     1       1.446   1.297   0.293  1.00  0.00    +0.321 A 
ATOM     10  C   UNL     1       0.240  -1.112  -0.223  1.00  0.00    +0.089 A 
ATOM     11  C   UNL     1       2.253   0.187   0.051  1.00  0.00    +0.092 A 
ATOM     12  C   UNL     1       1.638  -1.046  -0.215  1.00  0.00    -0.002 A 
ATOM     13  C   UNL     1      -4.100   1.344  -0.236  1.00  0.00    +0.055 A 
ATOM     14  C   UNL     1      -2.782  -1.116   0.184  1.00  0.00    +0.066 A 
ATOM     15  C   UNL     1      -4.801   0.170  -0.080  1.00  0.00    +0.166 A 
ATOM     16  C   UNL     1      -4.160  -1.025   0.129  1.00  0.00    +0.166 A 
ATOM     17  C   UNL     1       3.655   0.273   0.067  1.00  0.00    +0.174 A 
ATOM     18  C   UNL     1       2.437  -2.174  -0.465  1.00  0.00    +0.013 A 
ATOM     19  C   UNL     1       4.437  -0.855  -0.182  1.00  0.00    +0.161 A 
ATOM     20  C   UNL     1      -6.294  -1.382   0.115  1.00  0.00    +0.468 C 
ATOM     21  C   UNL     1       3.829  -2.078  -0.448  1.00  0.00    +0.051 A 
ENDROOT
BRANCH  17  22
ATOM     22  O   UNL     1       4.280   1.461   0.324  1.00  0.00    -0.492 OA
ATOM     23  C   UNL     1       4.572   2.291  -0.796  1.00  0.00    +0.278 C 
ENDBRANCH  17  22
BRANCH  19  24
ATOM     24  O   UNL     1       5.797  -0.774  -0.168  1.00  0.00    -0.493 OA
ATOM     25  C   UNL     1       6.448  -1.008   1.080  1.00  0.00    +0.278 C 
ENDBRANCH  19  24
TORSDOF 2
