REMARK SMILES O=C(O[C@@H]1Cc2c(O)cc(O)cc2O[C@@H]1c1cc(O)c(O)c(O)c1)c1cc(O)c(O)c(O)c1
REMARK SMILES IDX 3 1 4 2 14 3 15 4 13 5 6 6 12 7 5 8 7 9 10 10 9 11 16 12
REMARK SMILES IDX 24 13 17 14 22 15 18 16 20 17 23 18 19 20 21 22 8 24 11 26
REMARK SMILES IDX 2 28 1 29 25 30 33 31 26 32 31 33 27 34 29 35 32 36 28 38
REMARK SMILES IDX 30 40
REMARK H PARENT 23 19 19 21 21 23 8 25 11 27 32 37 28 39 30 41
ROOT
ATOM      1  O   UNL     1      -0.133   0.482   0.867  1.00  0.00    -0.454 OA
ENDROOT
BRANCH   1   2
ATOM      2  C   UNL     1      -0.811  -0.600   1.507  1.00  0.00    +0.227 C 
ATOM      3  O   UNL     1      -1.118  -1.763  -0.644  1.00  0.00    -0.481 OA
ATOM      4  C   UNL     1      -1.787  -1.263   0.525  1.00  0.00    +0.245 C 
ATOM      5  C   UNL     1       0.009  -2.502  -0.394  1.00  0.00    +0.131 A 
ATOM      6  C   UNL     1       0.695  -2.476   0.827  1.00  0.00    +0.040 A 
ATOM      7  C   UNL     1       0.483  -3.279  -1.454  1.00  0.00    +0.093 A 
ATOM      8  C   UNL     1       0.216  -1.629   1.975  1.00  0.00    +0.093 C 
ATOM      9  C   UNL     1       1.838  -3.272   0.982  1.00  0.00    +0.126 A 
ATOM     10  C   UNL     1       1.627  -4.059  -1.291  1.00  0.00    +0.122 A 
ATOM     11  C   UNL     1       2.302  -4.059  -0.073  1.00  0.00    +0.092 A 
BRANCH   4  12
ATOM     12  C   UNL     1      -2.898  -0.317   0.110  1.00  0.00    +0.004 A 
ATOM     13  C   UNL     1      -4.075  -0.258   0.854  1.00  0.00    +0.058 A 
ATOM     14  C   UNL     1      -2.740   0.490  -1.016  1.00  0.00    +0.058 A 
ATOM     15  C   UNL     1      -5.097   0.611   0.472  1.00  0.00    +0.161 A 
ATOM     16  C   UNL     1      -3.762   1.359  -1.398  1.00  0.00    +0.161 A 
ATOM     17  C   UNL     1      -4.941   1.420  -0.654  1.00  0.00    +0.200 A 
BRANCH  15  18
ATOM     18  O   UNL     1      -6.243   0.662   1.207  1.00  0.00    -0.504 OA
ATOM     19  H   UNL     1      -6.173   0.035   1.947  1.00  0.00    +0.293 HD
ENDBRANCH  15  18
BRANCH  16  20
ATOM     20  O   UNL     1      -3.597   2.143  -2.500  1.00  0.00    -0.504 OA
ATOM     21  H   UNL     1      -2.722   1.966  -2.887  1.00  0.00    +0.293 HD
ENDBRANCH  16  20
BRANCH  17  22
ATOM     22  O   UNL     1      -5.939   2.270  -1.026  1.00  0.00    -0.502 OA
ATOM     23  H   UNL     1      -5.654   2.748  -1.825  1.00  0.00    +0.293 HD
ENDBRANCH  17  22
ENDBRANCH   4  12
BRANCH   9  24
ATOM     24  O   UNL     1       2.521  -3.295   2.163  1.00  0.00    -0.507 OA
ATOM     25  H   UNL     1       3.279  -3.899   2.082  1.00  0.00    +0.293 HD
ENDBRANCH   9  24
BRANCH  10  26
ATOM     26  O   UNL     1       2.082  -4.822  -2.322  1.00  0.00    -0.508 OA
ATOM     27  H   UNL     1       1.494  -4.702  -3.088  1.00  0.00    +0.293 HD
ENDBRANCH  10  26
ENDBRANCH   1   2
BRANCH   1  28
ATOM     28  C   UNL     1       0.780   1.139   1.629  1.00  0.00    +0.338 C 
ATOM     29  O   UNL     1       0.742   1.280   2.841  1.00  0.00    -0.246 OA
BRANCH  28  30
ATOM     30  C   UNL     1       1.868   1.686   0.779  1.00  0.00    +0.067 A 
ATOM     31  C   UNL     1       2.509   2.841   1.177  1.00  0.00    +0.066 A 
ATOM     32  C   UNL     1       2.204   1.022  -0.384  1.00  0.00    +0.066 A 
ATOM     33  C   UNL     1       3.530   3.356   0.378  1.00  0.00    +0.162 A 
ATOM     34  C   UNL     1       3.226   1.536  -1.182  1.00  0.00    +0.162 A 
ATOM     35  C   UNL     1       3.889   2.703  -0.801  1.00  0.00    +0.200 A 
BRANCH  33  36
ATOM     36  O   UNL     1       4.170   4.496   0.761  1.00  0.00    -0.504 OA
ATOM     37  H   UNL     1       3.790   4.806   1.601  1.00  0.00    +0.293 HD
ENDBRANCH  33  36
BRANCH  34  38
ATOM     38  O   UNL     1       3.566   0.891  -2.333  1.00  0.00    -0.504 OA
ATOM     39  H   UNL     1       3.003   0.104  -2.434  1.00  0.00    +0.293 HD
ENDBRANCH  34  38
BRANCH  35  40
ATOM     40  O   UNL     1       4.887   3.206  -1.582  1.00  0.00    -0.502 OA
ATOM     41  H   UNL     1       5.228   4.015  -1.161  1.00  0.00    +0.293 HD
ENDBRANCH  35  40
ENDBRANCH  28  30
ENDBRANCH   1  28
TORSDOF 12
