REMARK SMILES CN(Cc1cnc2nc(N)nc(N)c2n1)c1ccc(C(=O)N[C@@H](CCC(=O)O)C(=O)O)cc1
REMARK SMILES IDX 21 1 22 2 20 3 23 5 29 6 30 7 31 8 24 10 25 11 26 12 27 13
REMARK SMILES IDX 28 14 19 16 18 17 32 18 17 19 33 20 16 21 2 22 1 23 3 24
REMARK SMILES IDX 4 25 15 26 5 27 14 28 6 29 7 30 12 31 8 32 11 33 9 34 13 35
REMARK SMILES IDX 10 38
REMARK H PARENT 22 4 31 9 28 15 13 36 13 37 10 39 10 40
ROOT
ATOM      1  O   UNL     1       4.071   2.275   1.280  1.00  0.00    -0.269 OA
ATOM      2  N   UNL     1       3.729   0.693  -0.382  1.00  0.00    -0.339 N 
ATOM      3  C   UNL     1       3.328   1.691   0.496  1.00  0.00    +0.251 C 
ATOM      4  H   UNL     1       3.043   0.198  -0.942  1.00  0.00    +0.164 HD
ENDROOT
BRANCH   2   5
ATOM      5  C   UNL     1       5.092   0.233  -0.461  1.00  0.00    +0.192 C 
BRANCH   5   6
ATOM      6  C   UNL     1       5.377  -0.109  -1.909  1.00  0.00    +0.326 C 
ATOM      7  O   UNL     1       4.545  -0.127  -2.807  1.00  0.00    -0.250 OA
BRANCH   6   8
ATOM      8  O   UNL     1       6.695  -0.364  -2.120  1.00  0.00    -0.480 OA
ATOM      9  H   UNL     1       6.881  -0.570  -3.061  1.00  0.00    +0.296 HD
ENDBRANCH   6   8
ENDBRANCH   5   6
BRANCH   5  10
ATOM     10  C   UNL     1       5.389  -0.912   0.515  1.00  0.00    +0.049 C 
BRANCH  10  11
ATOM     11  C   UNL     1       4.591  -2.203   0.293  1.00  0.00    +0.125 C 
BRANCH  11  12
ATOM     12  C   UNL     1       4.911  -3.297   1.290  1.00  0.00    +0.303 C 
ATOM     13  O   UNL     1       5.713  -3.208   2.208  1.00  0.00    -0.252 OA
BRANCH  12  14
ATOM     14  O   UNL     1       4.220  -4.435   1.021  1.00  0.00    -0.481 OA
ATOM     15  H   UNL     1       4.437  -5.153   1.653  1.00  0.00    +0.296 HD
ENDBRANCH  12  14
ENDBRANCH  11  12
ENDBRANCH  10  11
ENDBRANCH   5  10
ENDBRANCH   2   5
BRANCH   3  16
ATOM     16  C   UNL     1       1.882   2.034   0.475  1.00  0.00    +0.039 A 
ATOM     17  C   UNL     1       1.135   1.832  -0.686  1.00  0.00    +0.016 A 
ATOM     18  C   UNL     1       1.272   2.557   1.615  1.00  0.00    +0.016 A 
ATOM     19  C   UNL     1      -0.223   2.154  -0.706  1.00  0.00    +0.027 A 
ATOM     20  C   UNL     1      -0.084   2.879   1.595  1.00  0.00    +0.027 A 
ATOM     21  C   UNL     1      -0.832   2.678   0.435  1.00  0.00    +0.037 A 
BRANCH  21  22
ATOM     22  N   UNL     1      -2.204   3.004   0.414  1.00  0.00    -0.369 N 
ATOM     23  C   UNL     1      -2.846   3.550   1.593  1.00  0.00    +0.144 C 
BRANCH  22  24
ATOM     24  C   UNL     1      -2.986   2.812  -0.791  1.00  0.00    +0.174 C 
BRANCH  24  25
ATOM     25  C   UNL     1      -3.415   1.376  -0.917  1.00  0.00    +0.079 A 
ATOM     26  N   UNL     1      -3.902   0.769   0.176  1.00  0.00    -0.242 NA
ATOM     27  C   UNL     1      -3.313   0.712  -2.109  1.00  0.00    +0.139 A 
ATOM     28  C   UNL     1      -4.283  -0.516   0.048  1.00  0.00    +0.150 A 
ATOM     29  N   UNL     1      -3.694  -0.574  -2.235  1.00  0.00    -0.233 NA
ATOM     30  C   UNL     1      -4.183  -1.207  -1.162  1.00  0.00    +0.185 A 
ATOM     31  C   UNL     1      -4.796  -1.231   1.113  1.00  0.00    +0.157 A 
ATOM     32  N   UNL     1      -4.569  -2.485  -1.263  1.00  0.00    -0.191 NA
ATOM     33  N   UNL     1      -5.194  -2.515   1.052  1.00  0.00    -0.194 NA
ATOM     34  C   UNL     1      -5.054  -3.075  -0.155  1.00  0.00    +0.224 A 
BRANCH  31  35
ATOM     35  N   UNL     1      -4.915  -0.569   2.363  1.00  0.00    -0.382 N 
ATOM     36  H   UNL     1      -5.284  -1.108   3.136  1.00  0.00    +0.158 HD
ATOM     37  H   UNL     1      -4.277   0.191   2.565  1.00  0.00    +0.158 HD
ENDBRANCH  31  35
BRANCH  34  38
ATOM     38  N   UNL     1      -5.455  -4.423  -0.280  1.00  0.00    -0.368 N 
ATOM     39  H   UNL     1      -5.825  -4.908   0.525  1.00  0.00    +0.159 HD
ATOM     40  H   UNL     1      -5.366  -4.887  -1.173  1.00  0.00    +0.159 HD
ENDBRANCH  34  38
ENDBRANCH  24  25
ENDBRANCH  22  24
ENDBRANCH  21  22
ENDBRANCH   3  16
TORSDOF 13
