REMARK SMILES COc1cc(Cc2cnc(N)nc2N)cc(OC)c1OC
REMARK SMILES IDX 6 1 5 2 3 3 4 4 19 5 16 6 15 7 2 8 1 9 20 10 21 11 17 12
REMARK SMILES IDX 18 13 7 14 13 15 8 16 12 17 9 18 10 19 14 20 11 23
REMARK H PARENT 14 21 14 22 11 24 11 25
ROOT
ATOM      1  C   UNL     1       1.083  -0.331   1.755  1.00  0.00    +0.076 C 
ENDROOT
BRANCH   1   2
ATOM      2  C   UNL     1      -0.253  -0.151   1.117  1.00  0.00    -0.036 A 
ATOM      3  C   UNL     1      -2.113   1.272   0.523  1.00  0.00    +0.164 A 
ATOM      4  C   UNL     1      -0.864   1.103   1.120  1.00  0.00    +0.054 A 
ATOM      5  C   UNL     1      -2.751   0.187  -0.077  1.00  0.00    +0.203 A 
ATOM      6  C   UNL     1      -2.141  -1.067  -0.080  1.00  0.00    +0.164 A 
ATOM      7  C   UNL     1      -0.891  -1.236   0.517  1.00  0.00    +0.054 A 
BRANCH   3   8
ATOM      8  O   UNL     1      -2.699   2.502   0.533  1.00  0.00    -0.493 OA
ATOM      9  C   UNL     1      -2.412   3.365  -0.566  1.00  0.00    +0.278 C 
ENDBRANCH   3   8
BRANCH   5  10
ATOM     10  O   UNL     1      -3.973   0.351  -0.661  1.00  0.00    -0.490 OA
ATOM     11  C   UNL     1      -4.070   0.056  -2.052  1.00  0.00    +0.278 C 
ENDBRANCH   5  10
BRANCH   6  12
ATOM     12  O   UNL     1      -2.753  -2.136  -0.662  1.00  0.00    -0.493 OA
ATOM     13  C   UNL     1      -3.609  -2.922   0.164  1.00  0.00    +0.278 C 
ENDBRANCH   6  12
ENDBRANCH   1   2
BRANCH   1  14
ATOM     14  C   UNL     1       2.249  -0.102   0.815  1.00  0.00    +0.017 A 
ATOM     15  C   UNL     1       2.802  -1.105   0.073  1.00  0.00    +0.132 A 
ATOM     16  C   UNL     1       2.784   1.148   0.691  1.00  0.00    +0.123 A 
ATOM     17  N   UNL     1       3.840  -0.905  -0.765  1.00  0.00    -0.196 NA
ATOM     18  N   UNL     1       3.822   1.419  -0.127  1.00  0.00    -0.221 NA
ATOM     19  C   UNL     1       4.295   0.362  -0.815  1.00  0.00    +0.221 A 
BRANCH  15  20
ATOM     20  N   UNL     1       2.272  -2.415   0.177  1.00  0.00    -0.383 N 
ATOM     21  H   UNL     1       1.936  -2.738   1.074  1.00  0.00    +0.158 HD
ATOM     22  H   UNL     1       2.704  -3.111  -0.419  1.00  0.00    +0.158 HD
ENDBRANCH  15  20
BRANCH  19  23
ATOM     23  N   UNL     1       5.381   0.608  -1.682  1.00  0.00    -0.368 N 
ATOM     24  H   UNL     1       5.758   1.543  -1.753  1.00  0.00    +0.159 HD
ATOM     25  H   UNL     1       5.771  -0.154  -2.219  1.00  0.00    +0.159 HD
ENDBRANCH  19  23
ENDBRANCH   1  14
TORSDOF 7
